Random Atoms - Written For JQ-Random - An exmaple made by: John Quinn

1000 atoms
1 atom types
0.0 100 xlo xhi
0.0 100 ylo yhi
0.0 100 zlo zhi

Atoms

1 1 47.65781691456906 26.838812732764172 44.49158128119972
2 1 45.68092816679628 72.00580419321754 48.39320690006358
3 1 66.02976305982722 79.30006958982901 36.47945018443119
4 1 94.89084406919619 19.26079673081259 10.048377745937554
5 1 13.950264980660831 45.66122796391171 53.0168362892828
6 1 50.02929618755544 72.01119949163729 85.13976483620038
7 1 24.552993131432398 91.51968776147656 45.291723761805294
8 1 40.257349805587495 72.89348330444795 16.945999989999095
9 1 84.42036044206654 15.762474736286414 61.319922880706116
10 1 34.97619637641436 16.404379074976884 18.95041133013392
11 1 57.57353333309444 54.810414753599545 94.11699249780602
12 1 64.87464757859395 72.5754883435215 52.41023046180096
13 1 46.16840599324855 88.86070654321938 98.31882051478927
14 1 75.23485811118516 82.73108257208179 44.51740287985364
15 1 43.38288506793556 20.832893935714246 77.60590222442202
16 1 54.250111247715694 47.21581074338004 36.75217073739384
17 1 16.52144656898865 66.30027277671024 84.75996185172878
18 1 17.78150626772278 16.311436071607275 63.04066515461608
19 1 3.6962517503545067 81.30435238670577 87.64763336215404
20 1 5.367257039094908 2.283551146007401 43.583577196196025
21 1 36.02498016941615 86.64055736996963 79.15199203938982
22 1 14.426801062915985 92.8136129633253 27.09178941429502
23 1 30.691989827735554 73.49347357210206 16.541614017912
24 1 51.81253018625313 55.490814232406336 25.189414267435428
25 1 11.878545469055112 57.29712236604541 74.72420491473916
26 1 93.63293624953009 22.650918721682523 31.444065192693426
27 1 32.693632304729604 40.0310825528825 54.05992521168721
28 1 35.78803137348954 21.52259304247418 96.63875508233956
29 1 25.922495476921792 64.69792560669683 54.28260206127105
30 1 50.82681362398369 56.16318735843171 93.1891344518343
31 1 91.37291170209011 75.17337929256406 92.23574458574302
32 1 94.52813126827965 8.541012388951753 19.63263667578632
33 1 18.89667244776968 77.86462550195449 97.93995589610029
34 1 99.10307182656956 62.518906006691125 85.86703614984371
35 1 35.860661529851825 91.70606261465018 5.033083820164153
36 1 57.309121098837025 24.923321869894878 24.938252530359318
37 1 38.5509604716848 86.52944680851961 95.71231130709931
38 1 10.868469827300775 42.72840509174502 52.44006636499662
39 1 66.76903013665584 95.41717909929373 5.197249136445603
40 1 11.584663565750464 53.30187077061297 36.10102672900795
41 1 48.86033270644597 47.79251243920856 73.2640647786958
42 1 80.46944951486658 2.693328114763771 98.49143904250461
43 1 47.41544113169729 21.088186470355062 85.19539074683937
44 1 40.21607343513903 80.25274058937714 5.100750423615574
45 1 71.8539499235464 97.27914451924336 96.39103336930287
46 1 18.74600331497829 17.826569267895366 11.833752040351264
47 1 34.60449866372354 27.34242030136127 67.67568449194708
48 1 52.071751499648656 65.5713112580159 26.61198603832341
49 1 8.034630573447288 24.197699236588853 49.604669424945634
50 1 76.92607422339456 69.73409677895486 39.867665830590916
51 1 68.89593754298309 55.39127809869828 81.45108746881405
52 1 89.70766453941538 40.03044333322905 14.315589706977072
53 1 16.22774123324373 59.81886404109042 61.77704021959386
54 1 92.21844688306034 37.56285534013614 91.76791267904576
55 1 7.856742011588946 2.3633301705404675 51.33461849458696
56 1 68.11445207058111 66.04659294250547 3.1444222346181827
57 1 14.070915764484148 44.388899421088034 81.88650763856951
58 1 0.12455017684546155 8.515113522772078 76.96707286357584
59 1 51.9272785491649 64.56862783311479 16.958920818145707
60 1 70.18573592290923 37.619106476933084 97.18562534456998
61 1 54.34341779412372 61.59914910386692 32.790771340822985
62 1 37.891066890818735 50.3900323406092 1.850190619652059
63 1 39.93183618513807 75.98040002598621 43.60289958140695
64 1 71.14942412674485 49.72298601003678 80.35085520170429
65 1 16.07677370481513 61.490635811903374 61.07905277897646
66 1 17.899650155481805 45.31874364479869 1.3094431582702293
67 1 8.161272215467152 83.69543018922468 37.935894885472166
68 1 82.92187461929758 3.3914244038819708 66.5052961521458
69 1 9.55583390190432 4.7446713033572285 83.78554254399432
70 1 43.43116920860608 24.703914687915017 38.73762347416266
71 1 91.32301835228297 23.75752053375112 40.08241457863812
72 1 35.654940389471804 50.406667840971956 4.978928982173025
73 1 3.9623919823545184 15.332215560346253 64.82131190683833
74 1 2.0575936485622393 66.19914828828544 25.447448596500788
75 1 73.9482207568282 53.90717815239273 12.080810302202705
76 1 77.78810191512372 60.633229952719034 57.34883458978464
77 1 2.7813885180313136 25.489156860385176 29.352993046785404
78 1 99.86872188358625 87.21699752434243 46.28643362546793
79 1 78.08898835733949 76.47480040487213 57.7537304187437
80 1 38.07174312141717 13.46658513621868 14.37396817255756
81 1 78.05681440944349 21.744384349959457 78.12816444589964
82 1 65.05712089146522 6.413522528478266 78.17624327844831
83 1 31.928680679559818 85.88849734240009 24.839931983896946
84 1 93.89981868880591 81.49813527369228 7.1271586889402165
85 1 55.702746009727065 30.82201735878405 83.2820188864654
86 1 87.08602149669888 36.22296899179334 50.222243743354824
87 1 17.18278172025398 33.655742446497406 85.06192395552004
88 1 33.165452959219046 56.01949403416182 38.70561923903709
89 1 68.61347200000037 44.24949198524247 75.80534853722239
90 1 88.15576904671794 89.78704125138769 36.70545606388917
91 1 34.28660420677668 31.917143611364462 85.99375857618807
92 1 20.486101136930746 21.84742385793099 35.87938047705011
93 1 1.5294176504294876 76.7168292577871 11.574215515287323
94 1 47.49551634617949 12.475023249276395 96.86350635330045
95 1 48.45648545730234 14.518577704480906 39.25664109600837
96 1 76.12029707600139 20.875264291940553 50.33531367578663
97 1 73.8272794284349 80.10212371907322 4.799535886104856
98 1 23.113266655946376 16.657494948362917 70.06508126425935
99 1 33.09946643716511 64.94850763749649 65.58504462902957
100 1 2.6244675053453514 8.908464737168364 28.337213637774294
101 1 84.93978997114091 35.10523605611443 43.04366735107457
102 1 54.169800299310026 30.01666433188851 14.08412479742136
103 1 1.8892258489394131 55.645692487398534 70.26637292377458
104 1 5.596558263851015 17.66409210787925 34.45529986045176
105 1 33.661612596111 43.13512358064142 61.35206705163378
106 1 77.55517282266867 6.320324458173832 37.91704204366769
107 1 26.79124383553382 98.323195640277 57.25106490831941
108 1 69.01533083119861 89.81509045541219 50.39990414365624
109 1 23.01408028578933 34.70157555412058 58.13500677773992
110 1 41.10860219062997 11.474921378550484 60.00263162304762
111 1 80.87015004258109 2.2599192363744636 90.41446604540717
112 1 98.8607517881324 9.983561231711802 3.102433367750068
113 1 16.831103704297146 17.411692502571828 47.16342955840397
114 1 31.499944817742886 93.57044114753796 90.38391827578467
115 1 79.59131017816084 49.325962893546006 25.350911841495815
116 1 5.181771074180541 22.37585467601392 69.13308757839593
117 1 37.12441637995148 14.931506719616273 33.308490917940226
118 1 46.16512131042163 8.258755144145024 29.048369724895185
119 1 75.9107035459924 33.41738154261985 9.151503975595631
120 1 17.653141713908095 9.53768870965268 42.48576444035065
121 1 58.32984804379765 34.1751878100886 29.57669557966256
122 1 47.36004205920522 77.41901776664896 34.73855558520953
123 1 15.769193722128893 86.92830258252971 8.587251155816844
124 1 21.219991096554814 17.61263594932574 46.031016190306374
125 1 25.139208297104 72.75291498524939 74.344024850918
126 1 2.7804153255889363 39.04443225204894 89.08545279921796
127 1 29.43589506717722 71.10843476882091 32.07954641656533
128 1 70.45219541991099 51.37618171887348 74.0699916480889
129 1 1.8811531655346214 6.328103990355194 5.366304062564852
130 1 48.274219576241485 63.651600301940114 90.70798967014795
131 1 47.30869781051962 15.42976484863663 45.97173490378893
132 1 2.0127618587346574 7.010772852848779 57.58396929010887
133 1 49.348972830325664 69.7503125756174 70.80906461733407
134 1 53.138742980020126 0.06777355127493001 19.252957257918123
135 1 37.463047343946265 54.11497285434721 43.591569123336086
136 1 20.63002400766787 99.68843333084072 97.41314812486513
137 1 87.9370056059578 67.26579005350344 99.8701595504667
138 1 45.89447689916225 57.71802778740584 19.84258284980749
139 1 61.246139576751865 45.974567659404364 32.240599776721815
140 1 98.56211319210504 70.2739109175314 1.3148626592760948
141 1 57.66171283263094 72.99086857599545 39.08377925434602
142 1 57.14246210964038 41.38505068214264 64.23099810865114
143 1 86.9516222976368 86.75313188097685 99.26978168247308
144 1 13.894167859060557 80.5828583183483 27.936081858121476
145 1 32.68185987033292 51.302389820150566 48.986583842881714
146 1 54.703657950339405 44.251278275674835 36.912152512790506
147 1 30.752729830506432 60.975355848465455 19.117066408251006
148 1 82.3473912814525 28.953184466081705 1.2176115374886054
149 1 89.25047505102445 59.90008775161629 81.68390167371427
150 1 23.10722113967133 31.738386105689376 70.71373105795831
151 1 71.88546442883883 78.2791734220161 44.07471480928461
152 1 41.1533725225517 38.459344349308246 4.871628839887165
153 1 28.21269489718423 40.017024184454954 49.45353898971133
154 1 36.69865197449875 1.731343034660593 9.798396278394916
155 1 44.7165076979509 93.3101484392733 20.45633003129711
156 1 48.71048878225738 57.97176361441877 84.04842840038654
157 1 0.32197981613273363 59.4730310253406 23.679610605696844
158 1 60.50616599141429 37.77728226105119 95.19794133401587
159 1 64.5436490636642 4.411154792552285 17.795684194051407
160 1 65.1411604407011 5.293185463804361 57.05315088418151
161 1 33.392681802928095 62.468692824532035 60.95156713215131
162 1 53.481183116980716 60.06806696270861 98.59435301277267
163 1 29.25960576827592 76.02092533752408 36.88395974736951
164 1 29.84865855945732 96.20874370814583 75.82786980256408
165 1 97.80539621180947 29.069695092101846 86.80281739446541
166 1 71.50240294784896 68.55180212509767 0.6125278792904476
167 1 38.12658010532522 58.795621560621434 7.166746762417686
168 1 49.95089859231584 11.110079073674918 5.611520097220635
169 1 42.800453694145205 76.58072469311273 14.249758616039475
170 1 95.44041847694109 25.048792300774835 11.697315279471887
171 1 22.405178753809906 85.39100985836036 62.89609422760185
172 1 37.8864343522637 82.42187357719358 49.163165245434826
173 1 70.8754799892807 56.484196850909605 55.58290286622205
174 1 7.765397731136248 19.6938144397237 0.5419363264735799
175 1 81.69487555650102 99.02920018537124 97.30818417912069
176 1 25.314858467186706 54.71464228938453 14.467515778543994
177 1 28.94003415423819 58.31348696685528 54.550540822298075
178 1 48.41168328217281 88.68581117077936 29.977618420377617
179 1 14.31856446486811 30.06371098446925 20.285024457012256
180 1 1.986558707777264 98.04826988499562 12.788373215769266
181 1 19.727213873297835 21.680584523520597 63.611895644299544
182 1 26.21872947838646 56.09092968129228 85.60554575295852
183 1 61.446629395321764 64.91669851020218 35.31154302454739
184 1 16.940994007072497 35.66698746189425 27.840928684510168
185 1 92.0988976326903 7.476810943100265 91.26409002466018
186 1 67.02239647721011 24.995076999477504 65.64512785608073
187 1 78.27025969692191 78.9136748142149 62.7546302872677
188 1 39.524722820070636 22.77104528389289 75.85285506111173
189 1 2.8148409197871427 21.596369851311735 91.19535639129911
190 1 61.564572058081225 44.17181088313943 46.371056122893116
191 1 33.952498732941926 79.9711954593815 31.460884670306378
192 1 84.40862015170498 30.30230094871098 23.8933387240157
193 1 89.69258459142107 87.25878165819108 25.89652343925126
194 1 10.532317498483135 73.76300905501368 53.44465657593618
195 1 36.1452612728122 68.88683342990143 79.22803438902213
196 1 67.04055156813509 1.1390172483691008 53.180192821469106
197 1 16.747996851793236 19.667575857718123 90.50218689483387
198 1 13.840025425562995 86.23777188598454 24.85890459347557
199 1 13.988210522313926 91.11220427554831 19.635165670769606
200 1 44.16932842803831 98.18061792941623 38.36070109990105
201 1 56.99324737187634 87.39567296561798 1.6469548645728915
202 1 77.43219340024568 6.778577374556438 97.90477895970665
203 1 55.61397771247436 66.95124606337039 35.45497763026919
204 1 97.67307817964513 48.03759841296794 32.592194106751016
205 1 18.86941507501375 49.68634131775308 71.35865342298008
206 1 45.64517761998075 24.030277658583955 46.81760396299865
207 1 50.55632688291396 26.720024233054406 40.42076928401007
208 1 69.82415451911277 4.004652065536418 64.24736019873245
209 1 26.48159029775037 40.52245237052144 63.87492299044637
210 1 52.24063997194287 0.8132074503946041 90.65230540059542
211 1 57.32052298281768 75.21599939157323 18.602720106926807
212 1 77.17384952763949 21.811695879477345 80.22153671769931
213 1 22.91237101669592 85.46773518336886 13.992966358033742
214 1 8.680243793632858 88.1377372064711 28.094329386764837
215 1 90.90741939741213 59.62809989123973 80.68269321740186
216 1 58.77181666254645 46.643881260630714 96.6744725569033
217 1 62.68122882621636 49.90129266708855 43.09171044747737
218 1 90.83296094518349 21.135016782953876 1.9156371764882052
219 1 43.73831389482752 72.2935944260379 96.0938105137878
220 1 71.95970646467214 71.10057749317244 68.01865739441307
221 1 51.63223790114147 66.97483353059891 30.0306127888174
222 1 10.782573174394361 75.52665744149074 84.27193255634438
223 1 3.418571504577561 39.10101839837586 11.952733856534048
224 1 13.898909607856137 83.44459200578792 13.297827992472278
225 1 40.68613523584846 14.545295190413688 80.02926007814169
226 1 25.086498041597316 86.28375997721187 56.67578739153083
227 1 27.227550798043186 90.14435885038488 53.21713415041468
228 1 76.26862585558356 99.29083122667588 12.716918804007216
229 1 14.985594015819604 26.439389344134266 16.79832516642039
230 1 48.68260597637567 77.40164811056805 1.951483460172887
231 1 57.709637068306066 96.60421733544227 55.3098968184225
232 1 57.23257022153254 3.8438419001924684 41.0739621977002
233 1 48.70124088409366 42.19615028749577 58.606088039968554
234 1 36.472405566203015 22.814740605687632 87.98077284466281
235 1 1.8265357402943105 50.51506895168312 49.89587582381888
236 1 86.07526580280437 21.66509450783366 60.989993320833804
237 1 10.540455950861016 34.320433667885794 71.47258486142138
238 1 8.095673240082213 28.215318069615535 63.19911781914256
239 1 4.74894227174385 27.595007014295824 80.20248535232295
240 1 99.11042586595978 80.26851576543437 90.15348128481632
241 1 42.639625720185684 78.7231402239401 81.28909437950492
242 1 85.84492910564184 31.32874810424332 49.80817154758286
243 1 84.97670208570482 54.845756774889765 19.49857815457534
244 1 64.29875183339678 54.84890296904904 71.89694562798434
245 1 0.8013371677427439 59.694308649539096 51.55591805038606
246 1 93.76146516633543 4.926570873920233 53.525489030555775
247 1 31.52813335739324 86.2600034498826 72.57606345119059
248 1 5.426672184418968 63.84225998586165 24.976881794537743
249 1 40.576339414114315 26.03830684714945 19.889337429405874
250 1 76.37392526795296 22.82280548461859 44.07715494638934
251 1 46.73792418148539 63.69339349104833 72.0873769768361
252 1 25.89795232621901 62.91225595248019 85.617128155479
253 1 50.18368911337732 60.58199210130063 84.94444349310426
254 1 14.976033034315627 97.9402125081163 18.253105752659327
255 1 48.333489141123295 76.15114947203756 59.17266545930852
256 1 41.25396579812376 35.55055096680939 16.53038111772962
257 1 82.35112411666779 65.50000798122245 15.025619233773103
258 1 20.489215599207256 68.09823286872823 55.93766644651973
259 1 46.14555509775421 89.93848534951822 29.309197040207337
260 1 7.094916025876552 79.30336436438692 27.261917498962973
261 1 12.510151875368326 77.82226337138964 11.535947911105815
262 1 92.34075402613564 66.99012151741115 74.0135514358664
263 1 17.18753830127959 8.616303258713653 66.86151734646818
264 1 70.70703205129671 36.02736527815137 53.69103712005645
265 1 82.46797855725289 42.859922811856876 11.0778090012716
266 1 93.22247226983181 16.171620801349984 89.01592964095516
267 1 90.87563689873551 71.36666644728258 95.89262461194487
268 1 79.5987727775927 6.759360461806285 53.91814448079831
269 1 3.9625683063319372 77.4110049809022 38.65203353530309
270 1 52.22052057493155 25.593909879238918 30.810212230285394
271 1 20.447731408578807 1.3018191808973012 41.015775978825694
272 1 99.42706784991456 1.8324377813486725 18.705600491255225
273 1 54.17255878291598 38.57437878126307 39.58284661868669
274 1 55.46382959209764 38.51563832746807 62.23922678418453
275 1 53.74019763571704 79.84247622639357 42.43463744787503
276 1 20.61563317975541 57.33686215173379 76.77454683264916
277 1 43.33894258026601 76.36042276444557 81.2412036760395
278 1 39.131608165073985 22.292358456946772 42.89210603800454
279 1 71.69572401846172 84.8575281384978 24.085785494214917
280 1 83.81333583744568 50.735636560608356 1.6134779184696746
281 1 69.06863781384196 70.30233653869585 23.00928945159384
282 1 36.06030896438903 32.25423486219048 30.636721232414633
283 1 49.10633342487776 97.1695531190164 36.62430465089581
284 1 95.54578828188882 93.7812716503711 57.86842132881556
285 1 38.31358109545946 1.1350368765141394 54.76842530493713
286 1 68.2172964872262 55.97297452877243 65.51519829086999
287 1 19.09731650812585 48.81497971346196 68.53913971598102
288 1 86.65007678424574 55.86685409323311 21.67863475161732
289 1 89.74935385576848 13.701172222863478 25.547128407385998
290 1 38.102108434056426 19.141071340295067 47.53466146847567
291 1 89.67809472594776 0.6440126088117837 67.62189127252206
292 1 46.9081377622269 14.4024704428102 79.93638307997017
293 1 90.24788262110913 99.15667146999529 66.99786129361604
294 1 64.77428882509149 76.0881860500953 76.44403007661037
295 1 34.24466162782033 66.69358233081006 48.964676243590446
296 1 41.19590183035986 29.90882942115386 70.24161431310267
297 1 71.37287257824863 19.020820875588985 51.74823921947615
298 1 89.65737135501833 96.14211968065102 39.58381839385036
299 1 48.94355176814599 86.90230202605042 78.9429598334022
300 1 15.248761959525892 96.9064269035038 89.15046850412045
301 1 4.738096463475349 74.26256222656487 78.26839629833924
302 1 28.82221121073374 44.63688035728397 76.62424775117299
303 1 25.61421085612835 14.737790056848276 40.69686345382388
304 1 74.21151592001097 41.62904207088559 84.66459992806588
305 1 92.1231659282235 97.14129373875906 24.019033464132555
306 1 24.035262905405887 85.19271914367799 7.793625598908404
307 1 80.58151601548936 63.405018398246284 2.1647248651881945
308 1 57.67689242371233 9.073622745938204 85.46214568424948
309 1 14.449693635997019 40.601974803806165 17.623475039502356
310 1 12.015907365445965 86.5712234388926 70.07558020032121
311 1 1.6449140587069366 88.56967113723698 43.53614743574007
312 1 61.60410000317251 36.63731716918396 48.5706688552893
313 1 41.4354478763349 47.382420549366245 66.66147547021517
314 1 21.261975855297976 98.40645881825726 77.57422626173174
315 1 18.226962534917877 10.880511753632295 49.3749600042659
316 1 87.83468278253306 56.14004593913358 24.704696675009963
317 1 62.59404448080428 2.614867688431899 73.32178313526263
318 1 95.9941070301055 12.118275393302348 92.00409462010455
319 1 27.87597069052247 12.35928583894912 95.42167921192154
320 1 42.258262013876845 86.59434321554829 45.77808545647636
321 1 66.61258702164031 68.53468260284674 47.20315400273717
322 1 93.46555698856697 45.53189048862441 85.98952593341734
323 1 34.542290849435645 57.983403052122675 94.32715909296505
324 1 94.13210795083009 34.874780188654576 14.522005923515346
325 1 56.76517927212264 19.447324206918793 28.484219983597146
326 1 98.34225103903206 9.935633622320761 90.53685269429462
327 1 71.68505131947947 26.978545875899474 98.65085351145747
328 1 96.78439935106911 69.79029514228988 7.466261045870748
329 1 28.644061024087474 81.74089206567635 84.46715536007684
330 1 96.74920051692426 69.98390047510631 11.631044096404409
331 1 3.1807121826229023 43.08505191481581 49.9143231344094
332 1 56.23800078813738 78.00679225142166 40.22261923634276
333 1 47.86704549792089 35.983927534399385 92.09205732173949
334 1 70.19504663327555 91.50774146902164 25.593109720336116
335 1 37.66073263189453 32.11163755811203 38.03604604666218
336 1 80.87912637374063 90.11621998735232 83.4586749047324
337 1 76.15321851147449 71.23982124645768 47.40706402237019
338 1 63.013466463332165 82.88776047617007 80.5656103970777
339 1 87.32026170283366 50.2129780168885 44.102061068238044
340 1 76.80956374311775 86.8418306964007 74.20411779445459
341 1 64.83679955844698 80.880895284677 83.58843064675072
342 1 64.83346995203809 71.65958619206297 5.68817077392767
343 1 27.050207815850058 1.4710855209430385 32.916090748134785
344 1 86.34112676161389 46.14809292868968 99.34438785641905
345 1 80.22477809638133 76.96949728801411 38.02307504567093
346 1 54.00248519210936 49.61291151215496 8.374623214444266
347 1 85.67532881275913 68.02057085055979 46.953294782470934
348 1 33.55041215803383 57.072707840438206 95.54902810346472
349 1 77.3905951663071 1.438036322071612 59.70750030065053
350 1 55.012824489508304 62.42263054132757 31.551988197503068
351 1 6.637308835924605 54.9301753867652 61.87774950197387
352 1 36.99085515664987 18.81614474093267 89.0216355719119
353 1 96.97908659172363 6.063761040507353 17.176318709115545
354 1 18.47907840832598 87.5416525523738 4.929173454013536
355 1 78.75727450610003 38.77441773545641 29.390786676641113
356 1 46.590992157263535 16.528734761263742 14.272901578857866
357 1 91.7645757607734 1.943275787973675 70.79309486217463
358 1 45.15485921105069 78.35624470088393 12.211556990126738
359 1 25.81626027057624 33.20331986875896 10.93597431595924
360 1 41.73075068109926 51.90779646668625 25.725439522601622
361 1 67.09952797017273 35.115888266730074 1.3147381745811204
362 1 4.8895764972505145 90.0825927873174 61.97229579632124
363 1 62.63799557138977 43.265112760970744 70.25311385443862
364 1 20.16221458173586 18.789588145847848 95.62212083605546
365 1 89.82484429383658 94.67621691632789 5.113287725857885
366 1 16.752236136735764 79.49605765185342 29.4908144009434
367 1 75.74131226712207 28.822942215916026 54.21402763396262
368 1 98.45892039784944 12.23067902119922 78.36152769352223
369 1 98.96899180057 22.238237131134863 48.440655991409685
370 1 32.72715583574601 69.68102523758355 5.654795974116511
371 1 46.25152193604936 71.9162814037668 4.148668590643179
372 1 15.841761600819204 47.804260624720584 32.002542917676934
373 1 24.960321949554 33.88643724223683 17.19374550495233
374 1 33.8044471748445 99.1757316380894 54.68668575842833
375 1 53.89796004194225 16.68935591399141 56.05763859254071
376 1 15.392664389337163 46.56898842431998 3.6901227041519435
377 1 32.62313467557213 46.93250566241433 18.996981964165947
378 1 71.50443046334433 35.181252204709146 31.794007541253855
379 1 73.4612004624457 90.70563221505255 41.317253322429046
380 1 2.2673702018064956 88.52377713295417 69.81221908895014
381 1 17.34148858061496 13.44814869683536 70.8890243717694
382 1 35.8938552390892 59.54531762181888 66.01566734521909
383 1 50.248963929783606 17.1909959593455 47.83755822786154
384 1 95.94216385291068 27.406483521206415 10.995507164371244
385 1 40.45552835752474 42.62487742564838 52.654739774069704
386 1 19.91536055231834 39.5138614518454 52.7385724429648
387 1 94.61133752034051 61.48040323561694 16.776769102462218
388 1 62.13476910691406 24.57186412716783 80.8312068199778
389 1 84.04279346017007 8.123509349917358 93.59731372368046
390 1 49.083709408469346 20.00495124467937 98.93216319765965
391 1 91.36722799813846 51.733904151224664 22.495106807703348
392 1 53.980769339735566 61.26048750960567 7.583575778939455
393 1 1.3560081292868231 26.12249732801404 70.46027971566738
394 1 40.14583264326427 20.09110737271661 30.22630934535232
395 1 67.88386339522839 2.1253076083438738 45.76986566830617
396 1 90.4990844725258 9.16444761222296 36.146031069939525
397 1 43.06684104468451 0.03536199887261837 20.784390979553113
398 1 6.439644697760283 87.00129828612594 66.32173367607436
399 1 95.99108420824966 13.560565414024751 94.8530772932052
400 1 76.11048744693906 50.471827457127695 20.171589385424117
401 1 88.49294805332298 5.779366360808568 67.69456225164473
402 1 40.716421318350505 33.56297194089046 71.30446489163296
403 1 89.17035514961592 71.42177200366878 79.94571799059686
404 1 91.0905469740469 5.384133720365048 36.67918201833652
405 1 15.463814088724293 54.94211042155535 8.924688742884989
406 1 78.30866959906635 30.937112066637418 19.053286337277562
407 1 10.150856255322871 92.6528292561736 26.29881158327274
408 1 41.735114631818604 57.33281139382519 24.1225069446802
409 1 13.495402675055468 65.89005889969047 45.28818154147104
410 1 40.628010029709394 78.24693382438348 88.04996872903197
411 1 34.24678812167119 32.502639219739834 5.212487571707047
412 1 38.96646350643884 72.35351998985229 92.08239462093616
413 1 13.23938944486942 75.96777866385249 28.491505117990677
414 1 9.701037196317285 86.68270877995622 97.62973177419532
415 1 46.844344069673305 40.13168277689575 46.611326620964164
416 1 67.919453399839 16.655821121453652 53.14385315233564
417 1 73.5179177030781 78.05154416585765 58.86996648601025
418 1 55.67316959130877 90.90928593844023 15.63643261670249
419 1 39.47022200804974 72.60744884348505 54.0633502833861
420 1 59.968979791450174 2.645256450151856 32.147677368676455
421 1 83.1206561402496 73.09528906667565 54.14574496277898
422 1 78.93608025756393 42.14826514677945 46.47534153636411
423 1 26.210626799787452 50.74843027563145 89.32130445571576
424 1 11.466415372644045 75.64454699681912 10.879051109765136
425 1 69.41872684963488 68.17865997509361 72.43491596086584
426 1 15.254853091498422 92.08607906636209 22.29429934966982
427 1 76.8533663941107 60.241542266024695 78.68238940234555
428 1 6.1105228247336445 31.97809384883955 22.13588586546802
429 1 95.21893779038116 32.68408530695639 93.6658773170343
430 1 88.20919691448711 15.961719018253318 89.02371344233299
431 1 67.38401007389237 1.7133315491643653 81.44114721681497
432 1 42.55612813826535 50.36696684228147 65.33209263294836
433 1 1.1818475662621175 99.71138207954613 79.8853614403
434 1 70.85862965891802 67.18837284602157 3.963649874251607
435 1 56.82338166531511 22.599101211988838 5.7055092274241215
436 1 71.12086419937489 70.33617019753376 69.00936205603585
437 1 10.651545465805379 98.27908075466031 27.29649197964693
438 1 35.95479758835144 21.282099371611874 83.28672264734713
439 1 32.38959657287337 4.50449392163409 72.2378088824115
440 1 80.82331365231943 74.62907851255738 6.84299125808826
441 1 64.031483892208 79.8110368284722 82.07076600589099
442 1 16.638253219339116 18.724484488075397 63.53700863795731
443 1 65.83706775541788 72.44355246102234 25.173395174487677
444 1 0.9325747915854055 95.2297539479089 84.23993690371606
445 1 24.71737240027213 81.7541880007573 94.5389807506652
446 1 81.94837089845123 21.58199489034145 98.28797778757722
447 1 59.04997251559553 42.27240606144353 81.89048584213872
448 1 65.22760715195041 27.628029856295022 70.91643200071245
449 1 93.06960572847382 86.63377527580265 12.994454943148103
450 1 35.06170416327914 43.78512843158321 72.485839673111
451 1 83.07614471524103 23.67350360613152 35.01147807563043
452 1 93.12930548060862 10.559920752319051 26.582938967288438
453 1 95.45758789683518 18.242074391435935 47.08661963783691
454 1 75.10128066011234 10.919213270506656 31.391452607305993
455 1 50.154237500338596 20.130427585094424 90.45038741685163
456 1 47.59540984515866 64.6131458961706 66.60135550421
457 1 9.405724198524668 15.720132257452757 29.836233030663116
458 1 27.50379002999186 27.1998315491499 16.504680274431028
459 1 32.67988230212029 96.62551083147733 70.54400637633353
460 1 35.166326994206145 95.58164259713216 16.66904747538056
461 1 76.18801797901021 28.510910487497032 67.51809343333984
462 1 6.210010237823815 19.135976052313875 10.721481284593926
463 1 65.89141148767655 87.55595424630333 24.477036041136902
464 1 58.828470769591675 87.25548625161103 38.53845254741712
465 1 53.52460861724765 61.588522769583385 75.7997612899743
466 1 1.2921996320582108 28.907137008048778 69.54243267105335
467 1 64.31885689515863 40.90790700480012 84.94068787550829
468 1 31.803204050275845 22.487539071187168 6.003597632782743
469 1 5.030974661870435 97.94276147056485 97.070370370702
470 1 23.10114736724912 36.62019521282267 80.3024924780835
471 1 93.65741477138528 63.89973917048878 74.86804978763347
472 1 31.782484969335478 43.48009938629259 36.09750382638699
473 1 95.52444624634995 35.207994667959554 12.045428447624197
474 1 39.153776755135375 53.396407621201305 99.20196074275412
475 1 54.866795174144734 39.03633885970391 70.48527366181956
476 1 18.479522914650182 19.110671869225925 91.96859776152368
477 1 1.833464848910138 51.08413084269714 56.69718145731652
478 1 28.368541272250358 81.45887784808833 1.163857667810797
479 1 73.30817870476257 13.821555565246213 42.532512883420445
480 1 97.65976216358554 83.36695817754565 9.447289071150545
481 1 41.062398301139744 46.830611382580265 8.306558965568623
482 1 1.929259122266369 84.9368511042181 47.41047489046314
483 1 60.87700592648435 75.59195388371162 32.89484735632207
484 1 19.632833768252656 89.3374131492355 6.296752998174204
485 1 47.77212514053599 60.06836762984216 24.898465110248512
486 1 25.54084303702069 91.21679234326047 48.54481857552037